 # C with diamond structure oriented X=[100], Y=[010], Z=[001].
  
        1930  atoms
           1  atom types
 
      0.000000000000      71.400000000000  xlo xhi
      0.000000000000      71.400000000000  ylo yhi
      0.000000000000      71.400000000000  zlo zhi
 
Masses
 
            1   12.01100000             # C
 
Atoms # atomic
 
         1    1       31.237500000000      27.667500000000       0.892500000000
         2    1       33.915000000000      26.775000000000       0.000000000000
         3    1       32.130000000000      26.775000000000       1.785000000000
         4    1       34.807500000000      27.667500000000       0.892500000000
         5    1       34.807500000000      25.882500000000       2.677500000000
         6    1       33.022500000000      27.667500000000       2.677500000000
         7    1       37.485000000000      26.775000000000       0.000000000000
         8    1       35.700000000000      26.775000000000       1.785000000000
         9    1       36.592500000000      25.882500000000       0.892500000000
        10    1       38.377500000000      27.667500000000       0.892500000000
        11    1       36.592500000000      27.667500000000       2.677500000000
        12    1       39.270000000000      26.775000000000       1.785000000000
        13    1       40.162500000000      27.667500000000       2.677500000000
        14    1       27.667500000000      31.237500000000       0.892500000000
        15    1       30.345000000000      30.345000000000       0.000000000000
        16    1       28.560000000000      30.345000000000       1.785000000000
        17    1       30.345000000000      28.560000000000       1.785000000000
        18    1       29.452500000000      29.452500000000       0.892500000000
        19    1       31.237500000000      31.237500000000       0.892500000000
        20    1       31.237500000000      29.452500000000       2.677500000000
        21    1       29.452500000000      31.237500000000       2.677500000000
        22    1       32.130000000000      28.560000000000       0.000000000000
        23    1       33.915000000000      30.345000000000       0.000000000000
        24    1       32.130000000000      30.345000000000       1.785000000000
        25    1       33.915000000000      28.560000000000       1.785000000000
        26    1       33.022500000000      29.452500000000       0.892500000000
        27    1       34.807500000000      31.237500000000       0.892500000000
        28    1       34.807500000000      29.452500000000       2.677500000000
        29    1       33.022500000000      31.237500000000       2.677500000000
        30    1       35.700000000000      28.560000000000       0.000000000000
        31    1       37.485000000000      30.345000000000       0.000000000000
        32    1       35.700000000000      30.345000000000       1.785000000000
        33    1       37.485000000000      28.560000000000       1.785000000000
        34    1       36.592500000000      29.452500000000       0.892500000000
        35    1       38.377500000000      31.237500000000       0.892500000000
        36    1       38.377500000000      29.452500000000       2.677500000000
        37    1       36.592500000000      31.237500000000       2.677500000000
        38    1       39.270000000000      28.560000000000       0.000000000000
        39    1       41.055000000000      30.345000000000       0.000000000000
        40    1       39.270000000000      30.345000000000       1.785000000000
        41    1       41.055000000000      28.560000000000       1.785000000000
        42    1       40.162500000000      29.452500000000       0.892500000000
        43    1       41.947500000000      31.237500000000       0.892500000000
        44    1       41.947500000000      29.452500000000       2.677500000000
        45    1       40.162500000000      31.237500000000       2.677500000000
        46    1       42.840000000000      30.345000000000       1.785000000000
        47    1       43.732500000000      31.237500000000       2.677500000000
        48    1       26.775000000000      33.915000000000       0.000000000000
        49    1       26.775000000000      32.130000000000       1.785000000000
        50    1       27.667500000000      34.807500000000       0.892500000000
        51    1       27.667500000000      33.022500000000       2.677500000000
        52    1       25.882500000000      34.807500000000       2.677500000000
        53    1       28.560000000000      32.130000000000       0.000000000000
        54    1       30.345000000000      33.915000000000       0.000000000000
        55    1       28.560000000000      33.915000000000       1.785000000000
        56    1       30.345000000000      32.130000000000       1.785000000000
        57    1       29.452500000000      33.022500000000       0.892500000000
        58    1       31.237500000000      34.807500000000       0.892500000000
        59    1       31.237500000000      33.022500000000       2.677500000000
        60    1       29.452500000000      34.807500000000       2.677500000000
        61    1       32.130000000000      32.130000000000       0.000000000000
        62    1       33.915000000000      33.915000000000       0.000000000000
        63    1       32.130000000000      33.915000000000       1.785000000000
        64    1       33.915000000000      32.130000000000       1.785000000000
        65    1       33.022500000000      33.022500000000       0.892500000000
        66    1       34.807500000000      34.807500000000       0.892500000000
        67    1       34.807500000000      33.022500000000       2.677500000000
        68    1       33.022500000000      34.807500000000       2.677500000000
        69    1       35.700000000000      32.130000000000       0.000000000000
        70    1       37.485000000000      33.915000000000       0.000000000000
        71    1       35.700000000000      33.915000000000       1.785000000000
        72    1       37.485000000000      32.130000000000       1.785000000000
        73    1       36.592500000000      33.022500000000       0.892500000000
        74    1       38.377500000000      34.807500000000       0.892500000000
        75    1       38.377500000000      33.022500000000       2.677500000000
        76    1       36.592500000000      34.807500000000       2.677500000000
        77    1       39.270000000000      32.130000000000       0.000000000000
        78    1       41.055000000000      33.915000000000       0.000000000000
        79    1       39.270000000000      33.915000000000       1.785000000000
        80    1       41.055000000000      32.130000000000       1.785000000000
        81    1       40.162500000000      33.022500000000       0.892500000000
        82    1       41.947500000000      34.807500000000       0.892500000000
        83    1       41.947500000000      33.022500000000       2.677500000000
        84    1       40.162500000000      34.807500000000       2.677500000000
        85    1       42.840000000000      32.130000000000       0.000000000000
        86    1       44.625000000000      33.915000000000       0.000000000000
        87    1       42.840000000000      33.915000000000       1.785000000000
        88    1       44.625000000000      32.130000000000       1.785000000000
        89    1       43.732500000000      33.022500000000       0.892500000000
        90    1       45.517500000000      34.807500000000       0.892500000000
        91    1       43.732500000000      34.807500000000       2.677500000000
        92    1       26.775000000000      37.485000000000       0.000000000000
        93    1       26.775000000000      35.700000000000       1.785000000000
        94    1       25.882500000000      36.592500000000       0.892500000000
        95    1       27.667500000000      38.377500000000       0.892500000000
        96    1       27.667500000000      36.592500000000       2.677500000000
        97    1       28.560000000000      35.700000000000       0.000000000000
        98    1       30.345000000000      37.485000000000       0.000000000000
        99    1       28.560000000000      37.485000000000       1.785000000000
       100    1       30.345000000000      35.700000000000       1.785000000000
       101    1       29.452500000000      36.592500000000       0.892500000000
       102    1       31.237500000000      38.377500000000       0.892500000000
       103    1       31.237500000000      36.592500000000       2.677500000000
       104    1       29.452500000000      38.377500000000       2.677500000000
       105    1       32.130000000000      35.700000000000       0.000000000000
       106    1       33.915000000000      37.485000000000       0.000000000000
       107    1       32.130000000000      37.485000000000       1.785000000000
       108    1       33.915000000000      35.700000000000       1.785000000000
       109    1       33.022500000000      36.592500000000       0.892500000000
       110    1       34.807500000000      38.377500000000       0.892500000000
       111    1       34.807500000000      36.592500000000       2.677500000000
       112    1       33.022500000000      38.377500000000       2.677500000000
       113    1       35.700000000000      35.700000000000       0.000000000000
       114    1       37.485000000000      37.485000000000       0.000000000000
       115    1       35.700000000000      37.485000000000       1.785000000000
       116    1       37.485000000000      35.700000000000       1.785000000000
       117    1       36.592500000000      36.592500000000       0.892500000000
       118    1       38.377500000000      38.377500000000       0.892500000000
       119    1       38.377500000000      36.592500000000       2.677500000000
       120    1       36.592500000000      38.377500000000       2.677500000000
       121    1       39.270000000000      35.700000000000       0.000000000000
       122    1       41.055000000000      37.485000000000       0.000000000000
       123    1       39.270000000000      37.485000000000       1.785000000000
       124    1       41.055000000000      35.700000000000       1.785000000000
       125    1       40.162500000000      36.592500000000       0.892500000000
       126    1       41.947500000000      38.377500000000       0.892500000000
       127    1       41.947500000000      36.592500000000       2.677500000000
       128    1       40.162500000000      38.377500000000       2.677500000000
       129    1       42.840000000000      35.700000000000       0.000000000000
       130    1       44.625000000000      37.485000000000       0.000000000000
       131    1       42.840000000000      37.485000000000       1.785000000000
       132    1       44.625000000000      35.700000000000       1.785000000000
       133    1       43.732500000000      36.592500000000       0.892500000000
       134    1       45.517500000000      36.592500000000       2.677500000000
       135    1       43.732500000000      38.377500000000       2.677500000000
       136    1       26.775000000000      39.270000000000       1.785000000000
       137    1       27.667500000000      40.162500000000       2.677500000000
       138    1       28.560000000000      39.270000000000       0.000000000000
       139    1       30.345000000000      41.055000000000       0.000000000000
       140    1       28.560000000000      41.055000000000       1.785000000000
       141    1       30.345000000000      39.270000000000       1.785000000000
       142    1       29.452500000000      40.162500000000       0.892500000000
       143    1       31.237500000000      41.947500000000       0.892500000000
       144    1       31.237500000000      40.162500000000       2.677500000000
       145    1       29.452500000000      41.947500000000       2.677500000000
       146    1       32.130000000000      39.270000000000       0.000000000000
       147    1       33.915000000000      41.055000000000       0.000000000000
       148    1       32.130000000000      41.055000000000       1.785000000000
       149    1       33.915000000000      39.270000000000       1.785000000000
       150    1       33.022500000000      40.162500000000       0.892500000000
       151    1       34.807500000000      41.947500000000       0.892500000000
       152    1       34.807500000000      40.162500000000       2.677500000000
       153    1       33.022500000000      41.947500000000       2.677500000000
       154    1       35.700000000000      39.270000000000       0.000000000000
       155    1       37.485000000000      41.055000000000       0.000000000000
       156    1       35.700000000000      41.055000000000       1.785000000000
       157    1       37.485000000000      39.270000000000       1.785000000000
       158    1       36.592500000000      40.162500000000       0.892500000000
       159    1       38.377500000000      41.947500000000       0.892500000000
       160    1       38.377500000000      40.162500000000       2.677500000000
       161    1       36.592500000000      41.947500000000       2.677500000000
       162    1       39.270000000000      39.270000000000       0.000000000000
       163    1       41.055000000000      41.055000000000       0.000000000000
       164    1       39.270000000000      41.055000000000       1.785000000000
       165    1       41.055000000000      39.270000000000       1.785000000000
       166    1       40.162500000000      40.162500000000       0.892500000000
       167    1       41.947500000000      41.947500000000       0.892500000000
       168    1       41.947500000000      40.162500000000       2.677500000000
       169    1       40.162500000000      41.947500000000       2.677500000000
       170    1       42.840000000000      39.270000000000       0.000000000000
       171    1       42.840000000000      41.055000000000       1.785000000000
       172    1       44.625000000000      39.270000000000       1.785000000000
       173    1       43.732500000000      40.162500000000       0.892500000000
       174    1       30.345000000000      42.840000000000       1.785000000000
       175    1       31.237500000000      43.732500000000       2.677500000000
       176    1       32.130000000000      42.840000000000       0.000000000000
       177    1       33.915000000000      44.625000000000       0.000000000000
       178    1       32.130000000000      44.625000000000       1.785000000000
       179    1       33.915000000000      42.840000000000       1.785000000000
       180    1       33.022500000000      43.732500000000       0.892500000000
       181    1       34.807500000000      45.517500000000       0.892500000000
       182    1       34.807500000000      43.732500000000       2.677500000000
       183    1       35.700000000000      42.840000000000       0.000000000000
       184    1       37.485000000000      44.625000000000       0.000000000000
       185    1       35.700000000000      44.625000000000       1.785000000000
       186    1       37.485000000000      42.840000000000       1.785000000000
       187    1       36.592500000000      43.732500000000       0.892500000000
       188    1       38.377500000000      43.732500000000       2.677500000000
       189    1       36.592500000000      45.517500000000       2.677500000000
       190    1       39.270000000000      42.840000000000       0.000000000000
       191    1       39.270000000000      44.625000000000       1.785000000000
       192    1       41.055000000000      42.840000000000       1.785000000000
       193    1       40.162500000000      43.732500000000       0.892500000000
       194    1       31.237500000000      27.667500000000       4.462500000000
       195    1       33.915000000000      26.775000000000       3.570000000000
       196    1       32.130000000000      26.775000000000       5.355000000000
       197    1       34.807500000000      27.667500000000       4.462500000000
       198    1       34.807500000000      25.882500000000       6.247500000000
       199    1       33.022500000000      27.667500000000       6.247500000000
       200    1       37.485000000000      26.775000000000       3.570000000000
       201    1       35.700000000000      26.775000000000       5.355000000000
       202    1       36.592500000000      25.882500000000       4.462500000000
       203    1       38.377500000000      27.667500000000       4.462500000000
       204    1       36.592500000000      27.667500000000       6.247500000000
       205    1       39.270000000000      26.775000000000       5.355000000000
       206    1       40.162500000000      27.667500000000       6.247500000000
       207    1       27.667500000000      31.237500000000       4.462500000000
       208    1       30.345000000000      30.345000000000       3.570000000000
       209    1       28.560000000000      30.345000000000       5.355000000000
       210    1       30.345000000000      28.560000000000       5.355000000000
       211    1       29.452500000000      29.452500000000       4.462500000000
       212    1       31.237500000000      31.237500000000       4.462500000000
       213    1       31.237500000000      29.452500000000       6.247500000000
       214    1       29.452500000000      31.237500000000       6.247500000000
       215    1       32.130000000000      28.560000000000       3.570000000000
       216    1       33.915000000000      30.345000000000       3.570000000000
       217    1       32.130000000000      30.345000000000       5.355000000000
       218    1       33.915000000000      28.560000000000       5.355000000000
       219    1       33.022500000000      29.452500000000       4.462500000000
       220    1       34.807500000000      31.237500000000       4.462500000000
       221    1       34.807500000000      29.452500000000       6.247500000000
       222    1       33.022500000000      31.237500000000       6.247500000000
       223    1       35.700000000000      28.560000000000       3.570000000000
       224    1       37.485000000000      30.345000000000       3.570000000000
       225    1       35.700000000000      30.345000000000       5.355000000000
       226    1       37.485000000000      28.560000000000       5.355000000000
       227    1       36.592500000000      29.452500000000       4.462500000000
       228    1       38.377500000000      31.237500000000       4.462500000000
       229    1       38.377500000000      29.452500000000       6.247500000000
       230    1       36.592500000000      31.237500000000       6.247500000000
       231    1       39.270000000000      28.560000000000       3.570000000000
       232    1       41.055000000000      30.345000000000       3.570000000000
       233    1       39.270000000000      30.345000000000       5.355000000000
       234    1       41.055000000000      28.560000000000       5.355000000000
       235    1       40.162500000000      29.452500000000       4.462500000000
       236    1       41.947500000000      31.237500000000       4.462500000000
       237    1       41.947500000000      29.452500000000       6.247500000000
       238    1       40.162500000000      31.237500000000       6.247500000000
       239    1       42.840000000000      30.345000000000       5.355000000000
       240    1       43.732500000000      31.237500000000       6.247500000000
       241    1       26.775000000000      33.915000000000       3.570000000000
       242    1       26.775000000000      32.130000000000       5.355000000000
       243    1       27.667500000000      34.807500000000       4.462500000000
       244    1       27.667500000000      33.022500000000       6.247500000000
       245    1       25.882500000000      34.807500000000       6.247500000000
       246    1       28.560000000000      32.130000000000       3.570000000000
       247    1       30.345000000000      33.915000000000       3.570000000000
       248    1       28.560000000000      33.915000000000       5.355000000000
       249    1       30.345000000000      32.130000000000       5.355000000000
       250    1       29.452500000000      33.022500000000       4.462500000000
       251    1       31.237500000000      34.807500000000       4.462500000000
       252    1       31.237500000000      33.022500000000       6.247500000000
       253    1       29.452500000000      34.807500000000       6.247500000000
       254    1       32.130000000000      32.130000000000       3.570000000000
       255    1       33.915000000000      33.915000000000       3.570000000000
       256    1       32.130000000000      33.915000000000       5.355000000000
       257    1       33.915000000000      32.130000000000       5.355000000000
       258    1       33.022500000000      33.022500000000       4.462500000000
       259    1       34.807500000000      34.807500000000       4.462500000000
       260    1       34.807500000000      33.022500000000       6.247500000000
       261    1       33.022500000000      34.807500000000       6.247500000000
       262    1       35.700000000000      32.130000000000       3.570000000000
       263    1       37.485000000000      33.915000000000       3.570000000000
       264    1       35.700000000000      33.915000000000       5.355000000000
       265    1       37.485000000000      32.130000000000       5.355000000000
       266    1       36.592500000000      33.022500000000       4.462500000000
       267    1       38.377500000000      34.807500000000       4.462500000000
       268    1       38.377500000000      33.022500000000       6.247500000000
       269    1       36.592500000000      34.807500000000       6.247500000000
       270    1       39.270000000000      32.130000000000       3.570000000000
       271    1       41.055000000000      33.915000000000       3.570000000000
       272    1       39.270000000000      33.915000000000       5.355000000000
       273    1       41.055000000000      32.130000000000       5.355000000000
       274    1       40.162500000000      33.022500000000       4.462500000000
       275    1       41.947500000000      34.807500000000       4.462500000000
       276    1       41.947500000000      33.022500000000       6.247500000000
       277    1       40.162500000000      34.807500000000       6.247500000000
       278    1       42.840000000000      32.130000000000       3.570000000000
       279    1       44.625000000000      33.915000000000       3.570000000000
       280    1       42.840000000000      33.915000000000       5.355000000000
       281    1       44.625000000000      32.130000000000       5.355000000000
       282    1       43.732500000000      33.022500000000       4.462500000000
       283    1       45.517500000000      34.807500000000       4.462500000000
       284    1       43.732500000000      34.807500000000       6.247500000000
       285    1       26.775000000000      37.485000000000       3.570000000000
       286    1       26.775000000000      35.700000000000       5.355000000000
       287    1       25.882500000000      36.592500000000       4.462500000000
       288    1       27.667500000000      38.377500000000       4.462500000000
       289    1       27.667500000000      36.592500000000       6.247500000000
       290    1       28.560000000000      35.700000000000       3.570000000000
       291    1       30.345000000000      37.485000000000       3.570000000000
       292    1       28.560000000000      37.485000000000       5.355000000000
       293    1       30.345000000000      35.700000000000       5.355000000000
       294    1       29.452500000000      36.592500000000       4.462500000000
       295    1       31.237500000000      38.377500000000       4.462500000000
       296    1       31.237500000000      36.592500000000       6.247500000000
       297    1       29.452500000000      38.377500000000       6.247500000000
       298    1       32.130000000000      35.700000000000       3.570000000000
       299    1       33.915000000000      37.485000000000       3.570000000000
       300    1       32.130000000000      37.485000000000       5.355000000000
       301    1       33.915000000000      35.700000000000       5.355000000000
       302    1       33.022500000000      36.592500000000       4.462500000000
       303    1       34.807500000000      38.377500000000       4.462500000000
       304    1       34.807500000000      36.592500000000       6.247500000000
       305    1       33.022500000000      38.377500000000       6.247500000000
       306    1       35.700000000000      35.700000000000       3.570000000000
       307    1       37.485000000000      37.485000000000       3.570000000000
       308    1       35.700000000000      37.485000000000       5.355000000000
       309    1       37.485000000000      35.700000000000       5.355000000000
       310    1       36.592500000000      36.592500000000       4.462500000000
       311    1       38.377500000000      38.377500000000       4.462500000000
       312    1       38.377500000000      36.592500000000       6.247500000000
       313    1       36.592500000000      38.377500000000       6.247500000000
       314    1       39.270000000000      35.700000000000       3.570000000000
       315    1       41.055000000000      37.485000000000       3.570000000000
       316    1       39.270000000000      37.485000000000       5.355000000000
       317    1       41.055000000000      35.700000000000       5.355000000000
       318    1       40.162500000000      36.592500000000       4.462500000000
       319    1       41.947500000000      38.377500000000       4.462500000000
       320    1       41.947500000000      36.592500000000       6.247500000000
       321    1       40.162500000000      38.377500000000       6.247500000000
       322    1       42.840000000000      35.700000000000       3.570000000000
       323    1       44.625000000000      37.485000000000       3.570000000000
       324    1       42.840000000000      37.485000000000       5.355000000000
       325    1       44.625000000000      35.700000000000       5.355000000000
       326    1       43.732500000000      36.592500000000       4.462500000000
       327    1       45.517500000000      36.592500000000       6.247500000000
       328    1       43.732500000000      38.377500000000       6.247500000000
       329    1       26.775000000000      39.270000000000       5.355000000000
       330    1       27.667500000000      40.162500000000       6.247500000000
       331    1       28.560000000000      39.270000000000       3.570000000000
       332    1       30.345000000000      41.055000000000       3.570000000000
       333    1       28.560000000000      41.055000000000       5.355000000000
       334    1       30.345000000000      39.270000000000       5.355000000000
       335    1       29.452500000000      40.162500000000       4.462500000000
       336    1       31.237500000000      41.947500000000       4.462500000000
       337    1       31.237500000000      40.162500000000       6.247500000000
       338    1       29.452500000000      41.947500000000       6.247500000000
       339    1       32.130000000000      39.270000000000       3.570000000000
       340    1       33.915000000000      41.055000000000       3.570000000000
       341    1       32.130000000000      41.055000000000       5.355000000000
       342    1       33.915000000000      39.270000000000       5.355000000000
       343    1       33.022500000000      40.162500000000       4.462500000000
       344    1       34.807500000000      41.947500000000       4.462500000000
       345    1       34.807500000000      40.162500000000       6.247500000000
       346    1       33.022500000000      41.947500000000       6.247500000000
       347    1       35.700000000000      39.270000000000       3.570000000000
       348    1       37.485000000000      41.055000000000       3.570000000000
       349    1       35.700000000000      41.055000000000       5.355000000000
       350    1       37.485000000000      39.270000000000       5.355000000000
       351    1       36.592500000000      40.162500000000       4.462500000000
       352    1       38.377500000000      41.947500000000       4.462500000000
       353    1       38.377500000000      40.162500000000       6.247500000000
       354    1       36.592500000000      41.947500000000       6.247500000000
       355    1       39.270000000000      39.270000000000       3.570000000000
       356    1       41.055000000000      41.055000000000       3.570000000000
       357    1       39.270000000000      41.055000000000       5.355000000000
       358    1       41.055000000000      39.270000000000       5.355000000000
       359    1       40.162500000000      40.162500000000       4.462500000000
       360    1       41.947500000000      41.947500000000       4.462500000000
       361    1       41.947500000000      40.162500000000       6.247500000000
       362    1       40.162500000000      41.947500000000       6.247500000000
       363    1       42.840000000000      39.270000000000       3.570000000000
       364    1       42.840000000000      41.055000000000       5.355000000000
       365    1       44.625000000000      39.270000000000       5.355000000000
       366    1       43.732500000000      40.162500000000       4.462500000000
       367    1       30.345000000000      42.840000000000       5.355000000000
       368    1       31.237500000000      43.732500000000       6.247500000000
       369    1       32.130000000000      42.840000000000       3.570000000000
       370    1       33.915000000000      44.625000000000       3.570000000000